LAMMPS Description

     2550  atoms
     1700  bonds
     850  angles
     0  dihedrals
     0  impropers

     2  atom types
     1  bond types
     1  angle types

  -16. 16. xlo xhi
  -16. 16. ylo yhi
  -16. 16. zlo zhi

Masses

1 15.999  # 65
2 1.008  # 66

Atoms  # full

1 1 1 -1.1794 2.298849 -0.804534 -11.284033
2 1 2 0.5897 1.675049 -1.575753 -11.41253
3 1 2 0.5897 2.548037 -0.425004 -12.17434
4 2 1 -1.1794 -14.260919 -4.464513 0.457667
5 2 2 0.5897 -13.436095 -4.577251 1.01208
6 2 2 0.5897 -14.280687 -3.5425 0.072589
7 3 1 -1.1794 -1.733401 -10.908737 14.387417
8 3 2 0.5897 -1.324991 -11.583274 15.002737
9 3 2 0.5897 -1.566589 -11.1777 13.439462
10 4 1 -1.1794 -14.376968 10.906211 9.200306
11 4 2 0.5897 -14.737912 9.975227 9.141943
12 4 2 0.5897 -13.382384 10.873312 9.292531
13 5 1 -1.1794 14.989777 7.710164 -7.015018
14 5 2 0.5897 14.857772 8.217572 -7.866798
15 5 2 0.5897 14.138629 7.710234 -6.49125
16 6 1 -1.1794 0.839065 -2.85139 -13.855993
17 6 2 0.5897 1.788057 -2.560035 -13.97824
18 6 2 0.5897 0.258424 -2.04918 -13.721455
19 7 1 -1.1794 14.756763 14.644231 6.486988
20 7 2 0.5897 14.052888 15.000555 5.872163
21 7 2 0.5897 15.000027 13.714565 6.212526
22 8 1 -1.1794 3.098999 -0.831013 -2.11622
23 8 2 0.5897 2.611402 -0.164618 -2.680654
24 8 2 0.5897 2.449462 -1.30321 -1.521312
25 9 1 -1.1794 7.937095 -7.817707 14.899547
26 9 2 0.5897 8.915925 -7.990759 15.010728
27 9 2 0.5897 7.765428 -6.834008 14.940208
28 10 1 -1.1794 -9.782075 -3.049643 10.47151
29 10 2 0.5897 -9.133673 -2.894404 9.725927
30 10 2 0.5897 -9.445808 -2.609296 11.303259
31 11 1 -1.1794 -14.19103 -14.425291 -3.197166
32 11 2 0.5897 -13.372773 -15.000275 -3.213478
33 11 2 0.5897 -15.002827 -15.002434 -3.115457
34 12 1 -1.1794 7.020845 -12.806992 -9.814126
35 12 2 0.5897 7.310669 -11.931587 -10.201536
36 12 2 0.5897 6.343818 -13.230127 -10.415272
37 13 1 -1.1794 3.553196 -1.528184 5.334728
38 13 2 0.5897 4.356245 -1.749716 5.888312
39 13 2 0.5897 3.106127 -0.715026 5.705793
40 14 1 -1.1794 6.6714 0.365191 4.339029
41 14 2 0.5897 7.092851 1.265729 4.230269
42 14 2 0.5897 7.359 -0.28953 4.651011
43 15 1 -1.1794 3.857219 9.866999 -4.471914
44 15 2 0.5897 3.981078 10.118692 -5.431981
45 15 2 0.5897 4.507225 9.147791 -4.228981
46 16 1 -1.1794 -12.610437 -6.837212 7.214074
47 16 2 0.5897 -12.183027 -7.533469 7.791105
48 16 2 0.5897 -13.100544 -7.280213 6.464187
49 17 1 -1.1794 -14.558102 -4.905631 -5.735374
50 17 2 0.5897 -15.000372 -5.58004 -5.143776
51 17 2 0.5897 -14.99997 -4.017088 -5.616926
52 18 1 -1.1794 -14.998621 2.000245 -8.090443
53 18 2 0.5897 -15.021991 1.182444 -8.665833
54 18 2 0.5897 -14.910964 2.811665 -8.667244
55 19 1 -1.1794 -13.50452 6.422194 -14.968344
56 19 2 0.5897 -12.568622 6.774409 -14.946926
57 19 2 0.5897 -13.484488 5.42373 -15.006459
58 20 1 -1.1794 6.000864 -11.310695 -7.297638
59 20 2 0.5897 6.637542 -12.010636 -6.973382
60 20 2 0.5897 5.064682 -11.584765 -7.080307
61 21 1 -1.1794 3.646901 -5.220844 13.645528
62 21 2 0.5897 3.027224 -5.460336 14.393233
63 21 2 0.5897 4.47132 -4.796448 14.018363
64 22 1 -1.1794 -11.691194 8.736329 8.533558
65 22 2 0.5897 -11.010011 8.005187 8.576425
66 22 2 0.5897 -12.608247 8.339754 8.55652
67 23 1 -1.1794 -11.437205 1.200371 -6.086404
68 23 2 0.5897 -11.781674 1.463808 -6.987714
69 23 2 0.5897 -12.113114 1.435922 -5.388946
70 24 1 -1.1794 12.442636 -7.817816 -14.229279
71 24 2 0.5897 11.566923 -7.368305 -14.051843
72 24 2 0.5897 12.610919 -8.50937 -13.527696
73 25 1 -1.1794 3.778994 -10.603424 2.056334
74 25 2 0.5897 2.819235 -10.377153 2.223911
75 25 2 0.5897 3.857841 -11.572396 1.824688
76 26 1 -1.1794 9.763577 -7.087329 12.55581
77 26 2 0.5897 10.702475 -6.761931 12.669851
78 26 2 0.5897 9.137616 -6.308264 12.559882
79 27 1 -1.1794 11.815972 -3.102441 5.692258
80 27 2 0.5897 12.7523 -3.4098 5.863248
81 27 2 0.5897 11.619765 -2.300781 6.255844
82 28 1 -1.1794 5.319771 -10.736249 4.330089
83 28 2 0.5897 4.705404 -10.056584 4.731368
84 28 2 0.5897 6.039929 -10.962923 4.984899
85 29 1 -1.1794 7.610291 6.568585 -6.048139
86 29 2 0.5897 8.458026 6.979918 -6.383651
87 29 2 0.5897 7.778103 5.615796 -5.797507
88 30 1 -1.1794 -3.632447 7.213508 6.194838
89 30 2 0.5897 -2.92565 7.920657 6.223033
90 30 2 0.5897 -4.533966 7.643811 6.165044
91 31 1 -1.1794 10.915257 6.426481 -7.650862
92 31 2 0.5897 10.906303 5.426839 -7.683301
93 31 2 0.5897 11.858678 6.753316 -7.694693
94 32 1 -1.1794 0.707122 9.618079 12.273946
95 32 2 0.5897 0.331004 8.708053 12.449467
96 32 2 0.5897 -0.02383 10.228436 11.9707
97 33 1 -1.1794 -4.980596 -5.287102 12.002672
98 33 2 0.5897 -4.416146 -4.61884 12.48769
99 33 2 0.5897 -5.198436 -4.94075 11.090877
100 34 1 -1.1794 -7.834754 6.685493 -2.665393
101 34 2 0.5897 -8.077819 6.244437 -1.801213
102 34 2 0.5897 -6.86088 6.552026 -2.845788
103 35 1 -1.1794 -4.512545 -14.951836 -6.03862
104 35 2 0.5897 -4.655097 -14.984836 -5.049172
105 35 2 0.5897 -4.46596 -13.999302 -6.337442
106 36 1 -1.1794 10.286576 10.929527 7.821133
107 36 2 0.5897 10.527797 11.837833 8.163495
108 36 2 0.5897 9.343899 10.716513 8.075633
109 37 1 -1.1794 -11.021291 -10.202075 5.634177
110 37 2 0.5897 -11.805312 -9.58569 5.710323
111 37 2 0.5897 -10.445811 -9.916943 4.86847
112 38 1 -1.1794 -8.209227 11.615363 -10.233353
113 38 2 0.5897 -7.619304 12.422801 -10.212068
114 38 2 0.5897 -9.166439 11.901916 -10.253788
115 39 1 -1.1794 3.895266 -13.882938 -14.582709
116 39 2 0.5897 3.804448 -14.792503 -14.988742
117 39 2 0.5897 3.231824 -13.263239 -15.000563
118 40 1 -1.1794 7.604637 -7.848432 4.018725
119 40 2 0.5897 7.447005 -7.260937 3.224734
120 40 2 0.5897 7.215508 -8.752821 3.847133
121 41 1 -1.1794 -14.454536 11.02414 6.292279
122 41 2 0.5897 -15.003536 11.734933 5.852063
123 41 2 0.5897 -15.001967 10.19409 6.392884
124 42 1 -1.1794 9.920096 -4.301239 15.001815
125 42 2 0.5897 9.503772 -4.003538 14.142474
126 42 2 0.5897 10.157387 -5.270056 14.939599
127 43 1 -1.1794 -13.983913 -10.739686 1.028747
128 43 2 0.5897 -13.198289 -11.092725 1.53725
129 43 2 0.5897 -13.810958 -9.79185 0.763267
130 44 1 -1.1794 -15.001005 -3.118214 -2.780744
131 44 2 0.5897 -14.079883 -3.484081 -2.915257
132 44 2 0.5897 -15.00472 -2.140051 -2.985609
133 45 1 -1.1794 6.899732 -3.768476 -4.750129
134 45 2 0.5897 7.381382 -2.895114 -4.825436
135 45 2 0.5897 5.918526 -3.601679 -4.659589
136 46 1 -1.1794 -1.622782 -9.380025 10.543056
137 46 2 0.5897 -0.779323 -9.797188 10.203982
138 46 2 0.5897 -2.105241 -8.94036 9.786279
139 47 1 -1.1794 12.221155 -0.560815 11.965593
140 47 2 0.5897 12.439761 0.326831 12.371444
141 47 2 0.5897 13.03924 -1.134805 11.958002
142 48 1 -1.1794 7.184449 -12.312853 -0.662997
143 48 2 0.5897 6.470046 -12.354105 -1.361812
144 48 2 0.5897 7.347791 -13.228887 -0.298324
145 49 1 -1.1794 2.494746 -3.394676 3.153175
146 49 2 0.5897 2.136095 -3.896563 2.365839
147 49 2 0.5897 2.560271 -2.423201 2.927949
148 50 1 -1.1794 6.448096 -6.964528 -5.217244
149 50 2 0.5897 6.364419 -6.440009 -4.369721
150 50 2 0.5897 5.749133 -7.67853 -5.238155
151 51 1 -1.1794 -13.587711 3.754739 -5.486682
152 51 2 0.5897 -13.449941 3.585764 -6.46284
153 51 2 0.5897 -12.748682 4.126214 -5.090675
154 52 1 -1.1794 -0.7627 6.825218 10.768266
155 52 2 0.5897 -1.217489 7.652389 10.437549
156 52 2 0.5897 -1.403352 6.058659 10.741142
157 53 1 -1.1794 -4.748965 -5.868309 -4.676866
158 53 2 0.5897 -4.588901 -5.446808 -3.784042
159 53 2 0.5897 -4.200129 -6.6997 -4.756568
160 54 1 -1.1794 12.449375 -1.580732 -13.193806
161 54 2 0.5897 12.25888 -1.739869 -14.162726
162 54 2 0.5897 12.161778 -2.376575 -12.662104
163 55 1 -1.1794 2.453013 11.234797 5.281678
164 55 2 0.5897 2.797583 10.43378 5.771638
165 55 2 0.5897 3.219453 11.818316 5.01548
166 56 1 -1.1794 -9.658625 -0.103597 4.889447
167 56 2 0.5897 -10.047106 -0.040095 3.969954
168 56 2 0.5897 -9.721201 0.786125 5.340295
169 57 1 -1.1794 -1.174903 -0.012595 -10.090135
170 57 2 0.5897 -2.164719 -0.126434 -10.002253
171 57 2 0.5897 -0.758483 -0.888316 -10.33199
172 58 1 -1.1794 -1.36609 13.153419 3.184096
173 58 2 0.5897 -2.029623 13.816827 2.837642
174 58 2 0.5897 -1.74398 12.231537 3.10588
175 59 1 -1.1794 13.180671 0.818659 9.573938
176 59 2 0.5897 13.998317 0.68662 10.134686
177 59 2 0.5897 13.448588 1.115197 8.65793
178 60 1 -1.1794 0.400565 -2.680873 5.379824
179 60 2 0.5897 -0.503824 -2.714565 5.805694
180 60 2 0.5897 0.618609 -1.737081 5.133861
181 61 1 -1.1794 -5.084928 -10.695384 8.146502
182 61 2 0.5897 -5.445291 -10.184979 8.927554
183 61 2 0.5897 -5.332446 -11.659579 8.235087
184 62 1 -1.1794 -10.672505 -14.646389 -11.233902
185 62 2 0.5897 -10.707577 -13.648378 -11.177683
186 62 2 0.5897 -10.115453 -15.003414 -10.484895
187 63 1 -1.1794 10.633975 -6.940049 5.130635
188 63 2 0.5897 10.026403 -7.713588 5.312048
189 63 2 0.5897 10.093127 -6.104141 5.043877
190 64 1 -1.1794 2.427689 14.614266 5.08169
191 64 2 0.5897 3.112584 14.998502 4.462255
192 64 2 0.5897 1.513308 14.860405 4.762146
193 65 1 -1.1794 -4.53653 -2.329015 2.779938
194 65 2 0.5897 -4.059611 -1.714017 2.151652
195 65 2 0.5897 -4.416234 -2.006472 3.71817
196 66 1 -1.1794 -6.943575 -13.168711 15.001098
197 66 2 0.5897 -5.969327 -13.395055 14.99583
198 66 2 0.5897 -7.055351 -12.175761 15.019548
199 67 1 -1.1794 -3.37455 10.989865 10.817437
200 67 2 0.5897 -2.490908 10.521863 10.793559
201 67 2 0.5897 -3.556971 11.404019 9.926379
202 68 1 -1.1794 -10.646167 6.947115 14.640169
203 68 2 0.5897 -10.332083 5.998201 14.603678
204 68 2 0.5897 -11.577539 6.976657 15.001361
205 69 1 -1.1794 14.668771 2.932658 -2.715821
206 69 2 0.5897 15.005545 3.660103 -3.314006
207 69 2 0.5897 15.000301 2.04935 -3.045425
208 70 1 -1.1794 3.861798 -7.502202 4.160689
209 70 2 0.5897 4.853269 -7.373841 4.130253
210 70 2 0.5897 3.560515 -7.971717 3.331491
211 71 1 -1.1794 -5.414471 -14.012113 -9.238953
212 71 2 0.5897 -6.34873 -13.718946 -9.034915
213 71 2 0.5897 -5.399762 -15.000304 -9.387436
214 72 1 -1.1794 1.599318 0.369984 8.133403
215 72 2 0.5897 1.048795 0.021234 7.374643
216 72 2 0.5897 1.446279 1.352589 8.232658
217 73 1 -1.1794 14.308768 4.35202 -6.532572
218 73 2 0.5897 15.000421 4.962513 -6.919007
219 73 2 0.5897 13.400556 4.648845 -6.825542
220 74 1 -1.1794 -4.539959 -12.194947 -14.501556
221 74 2 0.5897 -3.766392 -12.587366 -14.999571
222 74 2 0.5897 -5.386122 -12.379611 -15.000246
223 75 1 -1.1794 -7.672238 -4.597426 2.411514
224 75 2 0.5897 -8.153931 -3.723937 2.337981
225 75 2 0.5897 -8.333367 -5.34639 2.384216
226 76 1 -1.1794 0.346524 6.96731 -1.249134
227 76 2 0.5897 0.713719 7.723277 -1.791444
228 76 2 0.5897 0.941468 6.169763 -1.342652
229 77 1 -1.1794 -7.062685 -12.935696 0.732333
230 77 2 0.5897 -7.174205 -12.072175 1.224586
231 77 2 0.5897 -7.125783 -12.769695 -0.251154
232 78 1 -1.1794 14.523586 12.876826 0.504686
233 78 2 0.5897 13.828704 12.717906 1.206328
234 78 2 0.5897 14.238614 13.634329 -0.081629
235 79 1 -1.1794 1.06604 7.643796 4.323392
236 79 2 0.5897 1.507653 7.886047 3.459267
237 79 2 0.5897 0.662614 6.732563 4.247984
238 80 1 -1.1794 12.790989 14.006488 -14.844504
239 80 2 0.5897 12.153781 13.239365 -14.767654
240 80 2 0.5897 13.714848 13.658556 -15.000109
241 81 1 -1.1794 -7.901227 8.297946 15.014671
242 81 2 0.5897 -6.945035 8.590884 14.997339
243 81 2 0.5897 -7.944448 7.299496 15.010737
244 82 1 -1.1794 -12.079364 -4.42957 4.373857
245 82 2 0.5897 -12.040617 -5.263924 4.924104
246 82 2 0.5897 -12.799647 -4.516318 3.686506
247 83 1 -1.1794 11.695363 -12.974947 11.962518
248 83 2 0.5897 11.794755 -13.970204 11.963894
249 83 2 0.5897 12.599506 -12.549339 11.949543
250 84 1 -1.1794 11.316558 -2.784366 -0.512022
251 84 2 0.5897 10.956195 -2.217917 -1.253434
252 84 2 0.5897 12.299109 -2.626996 -0.419212
253 85 1 -1.1794 6.013522 13.53679 -7.268192
254 85 2 0.5897 5.416282 14.338909 -7.250122
255 85 2 0.5897 5.476773 12.726287 -7.50008
256 86 1 -1.1794 8.931555 14.208497 -13.942732
257 86 2 0.5897 9.883935 14.506698 -13.875894
258 86 2 0.5897 8.339344 15.005732 -14.054483
259 87 1 -1.1794 -13.056101 12.449903 -1.260634
260 87 2 0.5897 -12.541481 13.285259 -1.454967
261 87 2 0.5897 -14.034892 12.651639 -1.268053
262 88 1 -1.1794 0.882797 15.002603 10.432298
263 88 2 0.5897 1.876375 15.000077 10.547251
264 88 2 0.5897 0.536182 14.068018 10.504367
265 89 1 -1.1794 10.854425 9.412651 -5.668325
266 89 2 0.5897 9.870981 9.230506 -5.677289
267 89 2 0.5897 11.354125 8.547166 -5.672734
268 90 1 -1.1794 3.73577 6.96151 14.222735
269 90 2 0.5897 2.811355 6.836925 14.58378
270 90 2 0.5897 3.906555 6.28892 13.503541
271 91 1 -1.1794 1.222834 -11.631226 9.227381
272 91 2 0.5897 1.905377 -12.180549 8.744891
273 91 2 0.5897 0.341747 -12.102547 9.209287
274 92 1 -1.1794 5.00226 5.556118 -4.705324
275 92 2 0.5897 4.022229 5.384683 -4.602526
276 92 2 0.5897 5.161206 6.538383 -4.798471
277 93 1 -1.1794 -6.942923 7.710934 2.706215
278 93 2 0.5897 -7.59793 6.968537 2.563977
279 93 2 0.5897 -7.433256 8.578375 2.783048
280 94 1 -1.1794 1.189099 7.306941 -4.467948
281 94 2 0.5897 0.207309 7.496053 -4.495209
282 94 2 0.5897 1.695799 8.167637 -4.503209
283 95 1 -1.1794 14.604312 -5.320198 1.711344
284 95 2 0.5897 14.991208 -4.504408 1.280978
285 95 2 0.5897 15.000022 -6.137335 1.293629
286 96 1 -1.1794 10.362349 3.693126 1.744583
287 96 2 0.5897 10.969985 4.115311 1.071562
288 96 2 0.5897 10.906705 3.294087 2.481625
289 97 1 -1.1794 0.554243 11.763674 -0.017149
290 97 2 0.5897 1.53833 11.940198 0.011634
291 97 2 0.5897 0.05988 12.58117 0.276262
292 98 1 -1.1794 3.99437 2.246358 -1.159844
293 98 2 0.5897 4.502666 1.441532 -1.466939
294 98 2 0.5897 3.165824 2.347472 -1.709456
295 99 1 -1.1794 -4.401582 4.417635 10.058455
296 99 2 0.5897 -3.432176 4.184097 9.980159
297 99 2 0.5897 -4.512008 5.408995 9.996836
298 100 1 -1.1794 12.628326 -5.494525 -12.332758
299 100 2 0.5897 12.533516 -4.867599 -11.559199
300 100 2 0.5897 13.467512 -6.027342 -12.229525
301 101 1 -1.1794 -3.04568 1.194255 -2.305868
302 101 2 0.5897 -2.254446 1.786605 -2.459132
303 101 2 0.5897 -2.745094 0.242498 -2.254952
304 102 1 -1.1794 -5.016381 -10.994457 13.512753
305 102 2 0.5897 -4.2824 -11.65441 13.674468
306 102 2 0.5897 -4.622321 -10.091147 13.346823
307 103 1 -1.1794 -15.000338 14.205958 8.065905
308 103 2 0.5897 -14.45107 13.373587 7.989218
309 103 2 0.5897 -14.408643 15.005952 7.972677
310 104 1 -1.1794 -6.711018 9.900067 -5.02992
311 104 2 0.5897 -7.110803 10.795375 -4.832405
312 104 2 0.5897 -7.317702 9.181692 -4.691309
313 105 1 -1.1794 12.256444 -10.591392 9.604695
314 105 2 0.5897 12.250825 -11.571153 9.403561
315 105 2 0.5897 13.200136 -10.273734 9.690269
316 106 1 -1.1794 -2.060754 3.491585 -14.641437
317 106 2 0.5897 -2.918896 3.257417 -14.184079
318 106 2 0.5897 -1.637638 2.661245 -15.002399
319 107 1 -1.1794 0.269901 8.020656 -7.467361
320 107 2 0.5897 0.957686 8.737261 -7.349685
321 107 2 0.5897 0.652302 7.141543 -7.185025
322 108 1 -1.1794 -7.867419 -10.71641 7.739549
323 108 2 0.5897 -8.749632 -11.187669 7.73364
324 108 2 0.5897 -7.767222 -10.185248 6.898947
325 109 1 -1.1794 -5.70793 -7.419386 1.10974
326 109 2 0.5897 -5.442014 -8.365496 1.295702
327 109 2 0.5897 -6.6618 -7.282645 1.37473
328 110 1 -1.1794 -4.39068 3.09746 4.359917
329 110 2 0.5897 -3.995711 3.224339 3.449797
330 110 2 0.5897 -3.723236 2.649623 4.953841
331 111 1 -1.1794 7.006279 8.435734 0.864654
332 111 2 0.5897 6.822417 8.243024 -0.099439
333 111 2 0.5897 7.557684 9.265854 0.939739
334 112 1 -1.1794 -0.810856 15.022958 -12.157767
335 112 2 0.5897 -0.734587 14.579151 -11.264661
336 112 2 0.5897 -1.762264 14.997839 -12.462688
337 113 1 -1.1794 -6.073836 6.942225 8.332854
338 113 2 0.5897 -6.302427 7.913925 8.269913
339 113 2 0.5897 -6.903992 6.414992 8.510763
340 114 1 -1.1794 -1.758188 -3.006884 -7.674219
341 114 2 0.5897 -1.888596 -3.755942 -8.324084
342 114 2 0.5897 -1.867736 -2.132795 -8.146184
343 115 1 -1.1794 -3.728539 -7.457436 -2.116902
344 115 2 0.5897 -2.804302 -7.127532 -2.310204
345 115 2 0.5897 -3.871276 -8.335754 -2.571839
346 116 1 -1.1794 0.342394 0.883153 -14.309884
347 116 2 0.5897 -0.146557 0.350762 -15.00119
348 116 2 0.5897 1.320859 0.688583 -14.369323
349 117 1 -1.1794 5.448442 1.322853 12.194577
350 117 2 0.5897 5.712384 1.445168 11.237607
351 117 2 0.5897 5.335578 0.348815 12.387701
352 118 1 -1.1794 -12.902876 -13.989033 -0.36906
353 118 2 0.5897 -13.768264 -14.478839 -0.476822
354 118 2 0.5897 -12.810679 -13.310414 -1.096907
355 119 1 -1.1794 -14.4355 0.810356 6.048784
356 119 2 0.5897 -15.001754 0.025048 6.299914
357 119 2 0.5897 -15.001883 1.499751 5.59853
358 120 1 -1.1794 9.933197 13.842607 -11.114959
359 120 2 0.5897 9.815774 12.895241 -10.816416
360 120 2 0.5897 10.88781 13.997074 -11.367227
361 121 1 -1.1794 -14.10872 10.567725 -9.148044
362 121 2 0.5897 -14.235539 11.540425 -8.952623
363 121 2 0.5897 -15.000703 10.12947 -9.253321
364 122 1 -1.1794 -3.33918 -1.146932 7.131567
365 122 2 0.5897 -3.583207 -2.116829 7.144576
366 122 2 0.5897 -4.157435 -0.599252 6.960422
367 123 1 -1.1794 -12.718551 9.441029 -6.26769
368 123 2 0.5897 -12.956051 8.854347 -5.493211
369 123 2 0.5897 -13.071265 9.038504 -7.111699
370 124 1 -1.1794 -9.965021 8.47453 -14.179593
371 124 2 0.5897 -10.466496 8.544466 -15.042175
372 124 2 0.5897 -10.445344 7.850721 -13.564014
373 125 1 -1.1794 3.33675 -3.68553 -0.478389
374 125 2 0.5897 3.87819 -4.108236 0.248646
375 125 2 0.5897 2.448 -4.138563 -0.538961
376 126 1 -1.1794 -5.328135 -1.039213 -0.545458
377 126 2 0.5897 -5.520119 -0.058287 -0.58212
378 126 2 0.5897 -4.339591 -1.185479 -0.532316
379 127 1 -1.1794 6.548921 15.000528 -3.796753
380 127 2 0.5897 6.622299 14.200796 -3.200547
381 127 2 0.5897 6.719628 14.728065 -4.743014
382 128 1 -1.1794 -10.384712 0.53223 10.200643
383 128 2 0.5897 -11.316062 0.888081 10.1208
384 128 2 0.5897 -10.365902 -0.422538 9.905942
385 129 1 -1.1794 12.2108 5.832053 13.761649
386 129 2 0.5897 12.666273 6.558606 13.246786
387 129 2 0.5897 11.548956 5.370013 13.172355
388 130 1 -1.1794 14.028581 -4.027031 9.799183
389 130 2 0.5897 13.683391 -4.468372 8.970643
390 130 2 0.5897 15.002199 -4.227221 9.902995
391 131 1 -1.1794 8.708 -2.493558 0.306122
392 131 2 0.5897 8.4355 -3.2927 0.842343
393 131 2 0.5897 7.934141 -1.866361 0.225186
394 132 1 -1.1794 -7.788415 1.403843 14.556042
395 132 2 0.5897 -7.144892 0.77381 14.991191
396 132 2 0.5897 -7.510185 2.345684 14.741266
397 133 1 -1.1794 6.063364 -1.861579 2.579177
398 133 2 0.5897 5.591633 -2.018548 3.447076
399 133 2 0.5897 6.026103 -2.691887 2.024213
400 134 1 -1.1794 -0.529899 14.048519 -8.532036
401 134 2 0.5897 -1.320436 13.499637 -8.804429
402 134 2 0.5897 -0.774051 15.017451 -8.550668
403 135 1 -1.1794 -7.06218 6.553702 -9.234369
404 135 2 0.5897 -6.431065 6.277258 -8.509324
405 135 2 0.5897 -6.842674 6.058826 -10.074429
406 136 1 -1.1794 13.760321 3.049683 13.880069
407 136 2 0.5897 13.039082 3.321118 14.517685
408 136 2 0.5897 14.520323 2.645956 14.388189
409 137 1 -1.1794 2.978731 14.925511 1.60244
410 137 2 0.5897 2.02382 14.990636 1.892821
411 137 2 0.5897 3.132926 14.0438 1.157922
412 138 1 -1.1794 13.964941 6.729829 6.908655
413 138 2 0.5897 13.980856 5.980248 7.570692
414 138 2 0.5897 14.890046 7.088184 6.788042
415 139 1 -1.1794 -6.152851 -11.980693 4.16696
416 139 2 0.5897 -6.287323 -12.857813 3.705447
417 139 2 0.5897 -5.959358 -12.13899 5.13458
418 140 1 -1.1794 4.181655 0.598454 14.978182
419 140 2 0.5897 3.722176 1.281077 14.409566
420 140 2 0.5897 3.915244 -0.317657 14.680608
421 141 1 -1.1794 -1.05369 11.924708 -11.906245
422 141 2 0.5897 -1.967397 11.653995 -12.210008
423 141 2 0.5897 -0.425706 11.154192 -12.009816
424 142 1 -1.1794 3.000596 -4.987884 -13.53457
425 142 2 0.5897 2.299934 -5.312704 -12.898973
426 142 2 0.5897 3.16277 -5.681635 -14.235422
427 143 1 -1.1794 -2.136389 -4.555054 7.034359
428 143 2 0.5897 -2.46035 -5.263349 6.406836
429 143 2 0.5897 -1.248519 -4.821093 7.408117
430 144 1 -1.1794 -8.506678 -10.234322 -0.327004
431 144 2 0.5897 -7.699878 -9.684201 -0.110536
432 144 2 0.5897 -9.315818 -9.647963 -0.343163
433 145 1 -1.1794 1.936258 9.817313 14.822373
434 145 2 0.5897 1.281352 9.083068 15.002375
435 145 2 0.5897 1.457899 10.694642 14.806544
436 146 1 -1.1794 -1.888324 9.424529 -6.078063
437 146 2 0.5897 -1.770873 9.799129 -6.998008
438 146 2 0.5897 -2.857811 9.433095 -5.835565
439 147 1 -1.1794 -9.841997 -0.483074 13.96134
440 147 2 0.5897 -9.151003 -0.718208 13.277485
441 147 2 0.5897 -9.506201 -0.72361 14.871378
442 148 1 -1.1794 -6.336799 -8.201889 -5.882626
443 148 2 0.5897 -6.748934 -8.903303 -6.464503
444 148 2 0.5897 -6.466475 -8.446504 -4.922349
445 149 1 -1.1794 -12.64439 6.009513 3.667696
446 149 2 0.5897 -12.616941 5.02727 3.854416
447 149 2 0.5897 -11.718471 6.341597 3.491121
448 150 1 -1.1794 -1.957244 -14.939416 -8.51736
449 150 2 0.5897 -2.708922 -14.5344 -9.038282
450 150 2 0.5897 -2.219456 -15.013373 -7.555819
451 151 1 -1.1794 -13.245009 -15.007067 7.318747
452 151 2 0.5897 -12.518168 -15.006765 6.631637
453 151 2 0.5897 -13.299353 -14.105897 7.747378
454 152 1 -1.1794 10.451071 14.701544 5.015044
455 152 2 0.5897 9.749954 14.999981 5.662955
456 152 2 0.5897 11.352838 14.969656 5.352262
457 153 1 -1.1794 3.489941 7.8022 -6.829307
458 153 2 0.5897 4.404033 8.027707 -7.166948
459 153 2 0.5897 3.358885 6.811828 -6.857119
460 154 1 -1.1794 12.401403 8.962646 7.285487
461 154 2 0.5897 11.787652 8.632779 8.003062
462 154 2 0.5897 12.8147 9.826606 7.571046
463 155 1 -1.1794 -12.931215 10.368735 -13.892101
464 155 2 0.5897 -13.864491 10.54145 -14.207668
465 155 2 0.5897 -12.780981 9.383478 -13.818062
466 156 1 -1.1794 14.134479 -1.2468 14.477776
467 156 2 0.5897 15.000055 -0.846617 14.779522
468 156 2 0.5897 14.253578 -2.228265 14.331737
469 157 1 -1.1794 -8.570201 14.695156 0.834917
470 157 2 0.5897 -7.693489 15.000449 1.207194
471 157 2 0.5897 -8.654771 15.000592 -0.112892
472 158 1 -1.1794 -7.666672 -8.718321 9.618035
473 158 2 0.5897 -7.630401 -8.18022 8.775687
474 158 2 0.5897 -8.604456 -9.02432 9.778385
475 159 1 -1.1794 8.184428 0.538516 8.617948
476 159 2 0.5897 8.343126 -0.436407 8.460602
477 159 2 0.5897 7.653895 0.659187 9.456254
478 160 1 -1.1794 -1.364219 4.142192 14.916138
479 160 2 0.5897 -2.305583 3.804572 14.899861
480 160 2 0.5897 -1.368301 5.138045 15.000071
481 161 1 -1.1794 -8.520227 -10.228195 -10.834906
482 161 2 0.5897 -9.514737 -10.122485 -10.820949
483 161 2 0.5897 -8.088499 -9.327274 -10.80777
484 162 1 -1.1794 -13.813549 4.996529 -12.310145
485 162 2 0.5897 -12.89893 5.031685 -11.906839
486 162 2 0.5897 -14.409271 4.43424 -11.737668
487 163 1 -1.1794 2.840312 -5.516422 5.847132
488 163 2 0.5897 3.494339 -4.769135 5.966412
489 163 2 0.5897 1.909389 -5.156996 5.901725
490 164 1 -1.1794 2.159735 12.988835 -12.90578
491 164 2 0.5897 1.243772 13.385655 -12.968732
492 164 2 0.5897 2.086976 12.007815 -12.729454
493 165 1 -1.1794 5.677353 4.388452 5.413093
494 165 2 0.5897 6.330139 3.632035 5.459152
495 165 2 0.5897 6.172746 5.251667 5.322368
496 166 1 -1.1794 1.71984 7.165956 -9.718968
497 166 2 0.5897 1.021863 7.772503 -10.100213
498 166 2 0.5897 2.49032 7.710007 -9.388583
499 167 1 -1.1794 11.560178 10.54098 -8.783788
500 167 2 0.5897 12.009842 10.548354 -7.890387
501 167 2 0.5897 10.959032 11.335583 -8.861344
502 168 1 -1.1794 12.493737 1.022649 -14.077625
503 168 2 0.5897 11.709798 1.054753 -13.457282
504 168 2 0.5897 12.173553 0.873607 -15.012533
505 169 1 -1.1794 1.389235 -9.78321 -3.975919
506 169 2 0.5897 0.781776 -10.551716 -4.177937
507 169 2 0.5897 2.289367 -10.129353 -3.713753
508 170 1 -1.1794 4.095485 10.572401 0.842297
509 170 2 0.5897 4.370055 11.481431 1.156455
510 170 2 0.5897 4.876528 10.116249 0.417231
511 171 1 -1.1794 4.97098 6.095833 8.420045
512 171 2 0.5897 4.086186 5.742026 8.723986
513 171 2 0.5897 5.705385 5.59299 8.874558
514 172 1 -1.1794 8.958527 -13.34897 -14.089426
515 172 2 0.5897 8.900818 -14.111483 -14.734144
516 172 2 0.5897 8.03974 -13.096942 -13.787604
517 173 1 -1.1794 3.494423 2.727386 5.603315
518 173 2 0.5897 2.926972 2.011788 6.011159
519 173 2 0.5897 3.058169 3.616406 5.737889
520 174 1 -1.1794 -12.247946 -1.405476 -4.733224
521 174 2 0.5897 -12.576924 -1.156669 -3.822023
522 174 2 0.5897 -12.691057 -2.251185 -5.028546
523 175 1 -1.1794 14.375568 8.589641 1.566951
524 175 2 0.5897 15.000321 7.845841 1.805413
525 175 2 0.5897 14.901421 9.414748 1.363328
526 176 1 -1.1794 -1.972684 5.551571 -5.954089
527 176 2 0.5897 -2.549798 4.74857 -5.803938
528 176 2 0.5897 -1.025014 5.261879 -6.083645
529 177 1 -1.1794 14.028862 -6.310954 -1.728326
530 177 2 0.5897 15.004346 -6.353809 -1.511504
531 177 2 0.5897 13.551709 -5.793789 -1.018642
532 178 1 -1.1794 10.565452 2.84825 10.404427
533 178 2 0.5897 9.631701 2.503449 10.306245
534 178 2 0.5897 11.028205 2.815059 9.519248
535 179 1 -1.1794 -6.68522 5.413474 5.114348
536 179 2 0.5897 -7.37889 5.031837 4.503126
537 179 2 0.5897 -6.75918 6.410096 5.122036
538 180 1 -1.1794 -0.263098 3.331038 -1.358172
539 180 2 0.5897 -0.266418 3.210763 -0.365227
540 180 2 0.5897 0.280679 2.606499 -1.780232
541 181 1 -1.1794 -4.767329 0.719544 -14.826338
542 181 2 0.5897 -3.790142 0.789777 -15.027809
543 181 2 0.5897 -5.146384 1.634083 -14.689518
544 182 1 -1.1794 13.141138 -11.544477 2.422792
545 182 2 0.5897 14.126028 -11.603223 2.258603
546 182 2 0.5897 12.700871 -12.387659 2.116206
547 183 1 -1.1794 14.180643 -3.153209 -7.787588
548 183 2 0.5897 14.838504 -3.851545 -7.50481
549 183 2 0.5897 13.552464 -3.540064 -8.461768
550 184 1 -1.1794 4.111414 5.63261 -14.945409
551 184 2 0.5897 3.54481 5.455108 -14.140504
552 184 2 0.5897 4.767519 6.357477 -14.738336
553 185 1 -1.1794 0.345106 8.120411 6.947337
554 185 2 0.5897 1.077173 7.449339 7.066324
555 185 2 0.5897 0.734698 9.040664 6.935625
556 186 1 -1.1794 -3.78562 13.247529 -2.073677
557 186 2 0.5897 -2.829111 12.960062 -2.020094
558 186 2 0.5897 -4.376592 12.441595 -2.076527
559 187 1 -1.1794 -6.488444 -6.325265 -10.954446
560 187 2 0.5897 -6.89409 -6.96094 -11.611551
561 187 2 0.5897 -5.499059 -6.463027 -10.924049
562 188 1 -1.1794 -14.236351 0.639015 9.567982
563 188 2 0.5897 -15.005616 0.779353 8.94432
564 188 2 0.5897 -13.991723 1.507908 9.996896
565 189 1 -1.1794 -12.689849 -4.187518 12.48484
566 189 2 0.5897 -12.387539 -5.139677 12.435633
567 189 2 0.5897 -12.050112 -3.607869 11.981325
568 190 1 -1.1794 14.297116 1.243919 -11.939682
569 190 2 0.5897 13.688613 2.027766 -11.814278
570 190 2 0.5897 14.90024 1.411007 -12.718853
571 191 1 -1.1794 -2.10104 9.168498 13.646968
572 191 2 0.5897 -2.392692 8.674706 12.827501
573 191 2 0.5897 -2.613159 10.023479 13.72131
574 192 1 -1.1794 1.752595 3.128753 3.257884
575 192 2 0.5897 2.553786 3.679388 3.022702
576 192 2 0.5897 1.114308 3.680269 3.793798
577 193 1 -1.1794 1.45899 7.871817 -14.93354
578 193 2 0.5897 1.167593 8.828624 -14.928452
579 193 2 0.5897 2.45485 7.826675 -15.004324
580 194 1 -1.1794 6.469273 8.62833 -12.796078
581 194 2 0.5897 6.769327 9.096039 -13.627723
582 194 2 0.5897 5.543625 8.275165 -12.927359
583 195 1 -1.1794 -2.100964 6.751964 -8.664017
584 195 2 0.5897 -2.750798 5.999821 -8.552594
585 195 2 0.5897 -2.59893 7.615721 -8.732853
586 196 1 -1.1794 8.219714 5.794041 7.566808
587 196 2 0.5897 7.67641 6.557753 7.217548
588 196 2 0.5897 9.191852 6.009401 7.481054
589 197 1 -1.1794 14.496345 12.081838 9.824452
590 197 2 0.5897 15.000008 11.614766 9.097413
591 197 2 0.5897 15.000005 12.89685 10.108823
592 198 1 -1.1794 9.271966 -13.305049 4.180309
593 198 2 0.5897 10.199651 -13.66886 4.093933
594 198 2 0.5897 9.223501 -12.699727 4.974048
595 199 1 -1.1794 -2.64508 0.125467 4.781127
596 199 2 0.5897 -2.896092 0.282546 3.825754
597 199 2 0.5897 -1.944314 -0.585431 4.829459
598 200 1 -1.1794 14.79297 11.383266 -1.788057
599 200 2 0.5897 13.800549 11.506043 -1.766984
600 200 2 0.5897 15.007908 10.407773 -1.819686
601 201 1 -1.1794 -1.423283 -8.300591 -4.378219
602 201 2 0.5897 -0.544404 -7.842776 -4.242588
603 201 2 0.5897 -1.497786 -9.073096 -3.74856
604 202 1 -1.1794 -12.608243 -0.835069 4.817739
605 202 2 0.5897 -12.74033 -0.583137 3.858833
606 202 2 0.5897 -12.158569 -1.726064 4.869754
607 203 1 -1.1794 -10.634428 7.567514 -8.167191
608 203 2 0.5897 -10.511639 8.05106 -7.300286
609 203 2 0.5897 -9.753815 7.212169 -8.478698
610 204 1 -1.1794 0.619101 1.519588 -11.596594
611 204 2 0.5897 -0.164138 2.139847 -11.643846
612 204 2 0.5897 1.011672 1.547224 -10.677948
613 205 1 -1.1794 -13.454624 -13.592987 -11.411632
614 205 2 0.5897 -14.393893 -13.334178 -11.185336
615 205 2 0.5897 -13.414468 -13.908324 -12.359121
616 206 1 -1.1794 14.287029 -2.036172 3.724087
617 206 2 0.5897 14.992486 -2.734976 3.604001
618 206 2 0.5897 13.491465 -2.265539 3.164396
619 207 1 -1.1794 -1.350161 -10.097093 4.968204
620 207 2 0.5897 -2.004695 -10.812879 5.212448
621 207 2 0.5897 -1.843805 -9.265883 4.714847
622 208 1 -1.1794 14.199321 -9.905509 -4.290375
623 208 2 0.5897 14.92859 -10.326845 -4.829875
624 208 2 0.5897 13.668059 -10.61806 -3.833409
625 209 1 -1.1794 8.646823 -14.036314 10.111433
626 209 2 0.5897 9.583327 -13.768993 10.339288
627 209 2 0.5897 8.628865 -15.001525 9.852918
628 210 1 -1.1794 15.000733 -9.408644 13.455988
629 210 2 0.5897 14.285706 -8.85846 13.887788
630 210 2 0.5897 14.895044 -10.364907 13.726498
631 211 1 -1.1794 2.835571 -13.121996 -6.601957
632 211 2 0.5897 3.41222 -13.766399 -6.099326
633 211 2 0.5897 2.500722 -12.416917 -5.977836
634 212 1 -1.1794 -3.476958 -7.790624 6.790417
635 212 2 0.5897 -3.900155 -7.304461 7.555249
636 212 2 0.5897 -3.161619 -8.687482 7.098625
637 213 1 -1.1794 5.517874 -8.906388 -2.720269
638 213 2 0.5897 5.815629 -8.087857 -2.228573
639 213 2 0.5897 4.779073 -9.34961 -2.213798
640 214 1 -1.1794 7.945664 -3.274686 9.469051
641 214 2 0.5897 7.241749 -3.844968 9.04514
642 214 2 0.5897 8.719941 -3.180694 8.844194
643 215 1 -1.1794 -6.599398 -2.82481 8.651342
644 215 2 0.5897 -6.099205 -2.05583 8.252725
645 215 2 0.5897 -6.382002 -2.895919 9.624208
646 216 1 -1.1794 -9.852571 -12.828967 -3.277481
647 216 2 0.5897 -9.471333 -12.858977 -2.353265
648 216 2 0.5897 -9.324513 -13.430449 -3.875945
649 217 1 -1.1794 5.218451 -14.641871 8.763463