LAMMPS data file via write_data, version 29 Sep 2021, timestep = 20000

2550 atoms
2 atom types
1700 bonds
1 bond types
850 angles
1 angle types

-14.846870761951248 14.846870761951248 xlo xhi
-14.846870761951248 14.846870761951248 ylo yhi
-14.846870761951248 14.846870761951248 zlo zhi

Masses

1 15.999
2 1.008

Pair Coeffs # lj/cut/tip4p/long

1 0.21084 3.1668
2 0 0

Bond Coeffs # harmonic

1 600 0.9572

Angle Coeffs # harmonic

1 75 104.52

Atoms # full

1849 617 1 -1.1794 -13.039639228425875 -10.8030873894266 -10.252684352809446 0 0 0
1850 617 2 0.5897 -12.96381285599584 -10.055616001902212 -10.845785027847448 0 0 0
2358 786 2 0.5897 -9.73419992151382 -11.199897656640829 -13.53660976534766 0 0 0
1928 643 2 0.5897 -13.926203015531467 -12.03901744431656 -11.190676392676837 0 0 0
1851 617 2 0.5897 -12.169905556786233 -11.202797149549127 -10.257923629304461 0 0 0
613 205 1 -1.1794 -10.615189305383907 -12.029080500174606 -10.216177149667548 0 0 0
614 205 2 0.5897 -10.127904967695878 -12.851297974339312 -10.163793356483655 0 0 0
1927 643 1 -1.1794 -14.386487274404294 -12.771061137469708 -11.601143092912917 0 0 0
615 205 2 0.5897 -10.2570447782944 -11.492395401146716 -9.509117203469039 0 0 0
2356 786 1 -1.1794 -9.421822197459484 -11.84695351012062 -12.904176436293422 0 0 0
2357 786 2 0.5897 -10.199012873905385 -12.081480734954198 -12.397024061594495 0 0 0
2015 672 2 0.5897 -13.140330123825297 -14.066982291077329 -11.864864847563876 0 1 1
2014 672 1 -1.1794 -12.51589122011726 -14.789546525083884 -11.9297428273832 0 1 1
1508 503 2 0.5897 -12.744521554444342 -14.595272005292713 -13.651201650669005 0 1 1
1507 503 1 -1.1794 -13.084247508613553 -14.469735933660049 -14.537237308789285 0 1 1
1791 597 2 0.5897 -14.002438163150812 -9.453503781585976 -9.226433341891632 0 0 0
2205 735 2 0.5897 -8.577661617697244 -10.446185534631999 -11.885393372384753 0 0 0
1544 515 2 0.5897 -8.727548022018581 -13.65163373744737 -13.68704898264339 0 0 1
1329 443 2 0.5897 -7.822194137913466 -9.335557320590206 -9.812372138619345 0 0 0
1585 529 1 -1.1794 -4.040358072092266 -11.612680304094887 -12.590019711470838 0 0 1
1587 529 2 0.5897 -4.100372574204242 -12.541454029730236 -12.366382785918018 0 0 1
1586 529 2 0.5897 -3.1005543193056475 -11.438563476850945 -12.641874125897841 0 0 1
305 102 2 0.5897 -4.233158127548316 -11.963529781879728 -14.358380593940607 0 0 1
893 298 2 0.5897 -4.540852443536437 -10.412958180809806 -11.146338399799221 0 0 0
996 332 2 0.5897 -4.074293511786303 -13.597252246895358 -10.47172920687164 0 0 0
994 332 1 -1.1794 -3.8133893403562578 -14.084269870521458 -11.253377738641223 0 0 0
1327 443 1 -1.1794 -7.214336756742872 -9.139618256481604 -9.099385878614164 0 0 0
1328 443 2 0.5897 -6.349992237966594 -9.152935058880484 -9.510436975107897 0 0 0
892 298 1 -1.1794 -4.685163153785089 -9.608375337111976 -10.648285277699319 0 0 0
894 298 2 0.5897 -3.8200610954084464 -9.376969304830032 -10.310226514617392 0 0 0
1543 515 1 -1.1794 -8.180147273736166 -14.085101720580115 -14.341793839467414 0 0 1
2203 735 1 -1.1794 -8.292446490075603 -9.616596982774652 -11.502419286815025 0 0 0
2204 735 2 0.5897 -7.532068515712249 -9.360208636355111 -12.02426441218441 0 0 0
995 332 2 0.5897 -2.8624478621354843 -14.16489916952221 -11.179614214046223 0 0 0
1346 449 2 0.5897 -1.7578555683011832 -10.209907216500296 -11.3702558195647 0 0 1
1345 449 1 -1.1794 -1.5630310133439735 -10.30956463278051 -12.302105245466807 0 0 1
2152 718 1 -1.1794 -2.175571201845676 -10.094346390501535 -9.530442127668142 0 0 0
1022 341 2 0.5897 1.6822185938178542 -10.109816930164174 -14.139679732514931 0 0 0
1204 402 1 -1.1794 1.2982912023669329 -12.177329119097434 -14.321741048759783 0 0 0
1206 402 2 0.5897 0.7034436257254182 -12.827756262301067 -13.94846669180725 0 0 0
1903 635 1 -1.1794 1.220146735786244 -10.967992460244627 -11.673242986904704 0 0 0
1904 635 2 0.5897 1.752264670664072 -11.612448194084699 -12.13989034987478 0 0 0
1905 635 2 0.5897 0.37857906838830857 -10.976232803346797 -12.129235726004095 0 0 0
1347 449 2 0.5897 -1.8266303990797326 -9.476449406514316 -12.692830567637596 0 0 1
1205 402 2 0.5897 2.0618086100633874 -12.68264099765901 -14.60091231956587 0 0 0
1139 380 2 0.5897 -0.7009767754381482 -11.498342544553918 -9.439615182612553 0 0 0
1021 341 1 -1.1794 2.054247035848018 -9.22837417311125 -14.169431064662941 0 0 0
1140 380 2 0.5897 0.6627811026909338 -11.786929468475417 -10.030189888152464 0 0 0
334 112 1 -1.1794 -1.1552006636761032 -13.446121391473953 -13.355918300598908 0 1 0
335 112 2 0.5897 -1.1981327668651982 -13.591267125593024 -12.410760751986192 0 1 0
336 112 2 0.5897 -1.1715615907889774 -14.325043867855166 -13.734679742050727 0 1 0
933 311 2 0.5897 2.1314065404276654 -9.4481850466074 -10.772406505703096 0 0 0
931 311 1 -1.1794 2.7619682470436757 -9.131019124270306 -10.125851802867308 0 0 0
2154 718 2 0.5897 -2.697178485547301 -10.710363126636691 -9.015963393924189 0 0 0
1138 380 1 -1.1794 0.09128730118090722 -12.016341342109971 -9.297385693309497 0 0 0
450 150 2 0.5897 -0.6529230737233451 -13.432338946179017 -10.005956882849683 0 0 0
448 150 1 -1.1794 -1.0955369371746801 -14.071144385920094 -10.564752462309105 0 0 0
449 150 2 0.5897 -0.47013659288304765 -14.790948633975814 -10.648345456447597 0 0 0
932 311 2 0.5897 2.373731435728182 -9.357612479151562 -9.280771650967434 0 0 0
9 3 2 0.5897 -1.50669274355959 -11.019462347058951 -14.722563388888439 0 0 1
1090 364 1 -1.1794 3.438711227328291 -13.996528921458957 -14.808655372229527 0 0 0
1092 364 2 0.5897 3.1852602392491676 -14.838602207585648 -14.430625179494578 0 0 0
35 12 2 0.5897 7.988574140643745 -13.351645475858122 -11.782369447928527 0 0 0
1494 498 2 0.5897 4.494914912998237 -10.947345883211575 -11.795121033972645 0 0 0
2035 679 1 -1.1794 4.188379641851334 -12.55461521142048 -12.546444055618254 0 0 0
2036 679 2 0.5897 4.2693392305218545 -12.975503619749741 -13.402325052176016 0 0 0
2037 679 2 0.5897 4.761116525983461 -13.064205191526103 -11.973275386479521 0 0 0
1682 561 2 0.5897 6.98213432549019 -10.342080316640839 -10.61850119468486 0 0 0
1492 498 1 -1.1794 4.9732979600672245 -10.16006064628632 -11.535191298048638 0 0 0
1681 561 1 -1.1794 7.8815762684836095 -10.170420755097174 -10.339626739131635 0 0 0
1493 498 2 0.5897 4.3371408427338025 -9.64585622882185 -11.03807000840232 0 0 0
1683 561 2 0.5897 8.409497146803531 -10.326103937253729 -11.122760211339083 0 0 0
1062 354 2 0.5897 8.658273948208674 -10.662005826019502 -13.378467548295301 0 0 0
34 12 1 -1.1794 8.825948893987878 -13.496139278530663 -12.223007529616025 0 0 0
1483 495 1 -1.1794 6.913819973501024 -10.39433907662686 -13.650912945798535 0 1 0
1485 495 2 0.5897 6.239125277125151 -10.35018615617646 -12.9733656421195 0 1 0
1484 495 2 0.5897 6.518997692958074 -10.916763496224506 -14.349069114854965 0 1 0
724 242 1 -1.1794 6.456990635871033 -13.542078796725688 -10.591637509441092 0 1 0
725 242 2 0.5897 6.34229574631938 -13.21944572531581 -9.697776735748274 0 1 0
726 242 2 0.5897 5.906989140579132 -14.324180347182788 -10.636908485173215 0 1 0
690 230 2 0.5897 8.499959246885219 -10.932421289506232 -8.916893176031117 0 0 0
710 237 2 0.5897 7.527509862943084 -14.026705595540477 -14.29554635955934 0 1 0
1929 643 2 0.5897 14.521768083999437 -12.377775670600876 -11.981368393276531 -1 0 0
854 285 2 0.5897 14.662594903793156 -13.74676654929583 -10.38025614090591 0 1 0
36 12 2 0.5897 9.269868518366646 -14.15215451980457 -11.685595018170446 0 0 0
1061 354 2 0.5897 9.42997405957367 -11.699752034141293 -12.591412237761737 0 0 0
1060 354 1 -1.1794 9.411623532640892 -10.765077068258602 -12.797027421382213 0 0 0
515 172 2 0.5897 11.522542674563063 -11.801431414689175 -14.78597011025955 0 0 0
813 271 2 0.5897 11.352812267641259 -9.482359090671153 -10.589980140963753 0 0 0
811 271 1 -1.1794 11.431866051606637 -9.281069914940321 -11.522431717660828 0 0 0
812 271 2 0.5897 10.55571821226151 -9.434309143548528 -11.876148650500433 0 0 0
2394 798 2 0.5897 12.563376770049796 -14.683134594301022 -9.864016174268762 0 0 0
2492 831 2 0.5897 12.532969575958866 -10.957510640776155 -12.033354155677255 0 0 0
2491 831 1 -1.1794 13.00620772898143 -11.701256133513768 -12.40634305483399 0 0 0
2493 831 2 0.5897 12.320418071925186 -12.275814741751653 -12.746651618688777 0 0 0
2392 798 1 -1.1794 11.639927353702749 -14.641721169051557 -10.112534235593369 0 0 0
853 285 1 -1.1794 14.484747549622448 -14.362487980873638 -9.669278253126873 0 1 0
2393 798 2 0.5897 11.242273065158745 -14.06223750257901 -9.462682814100145 0 0 0
1519 507 1 -1.1794 11.530407691140333 -13.369582051203317 -13.897679239242423 0 0 1
1521 507 2 0.5897 10.878232832586885 -14.056986915880573 -13.76211780150221 0 0 1
1520 507 2 0.5897 12.333209648798142 -13.840960294711623 -14.120265631625362 0 0 1
516 172 2 0.5897 10.448711436709498 -10.734352563251012 -14.797075417105805 0 0 0
1790 597 2 0.5897 -14.535251017516773 -8.06943588162791 -9.53034265403089 0 0 0
1000 334 1 -1.1794 -13.460450411724501 -8.541868154495697 -12.530292517921984 0 0 0
1001 334 2 0.5897 -13.841801703074502 -8.34035564222582 -13.384809230772497 0 0 0
1002 334 2 0.5897 -12.572764690822243 -8.186405483451587 -12.573797509734014 0 0 0
838 280 1 -1.1794 -13.410777902466133 -4.5350976877617555 -10.653086504941417 0 0 0
840 280 2 0.5897 -14.033728317154033 -3.9453780481718574 -11.077815931693394 0 0 0
1648 550 1 -1.1794 -10.768369779133812 -7.895055831333338 -11.508031421151397 0 0 0
1649 550 2 0.5897 -10.461034465464127 -8.017135388534859 -10.609767784196531 0 0 0
1650 550 2 0.5897 -9.973712926846556 -7.930554607711125 -12.04047263732182 0 0 0
839 280 2 0.5897 -13.91113062561676 -4.944992937274106 -9.947491104388558 0 0 0
2532 844 2 0.5897 -11.978918947095924 -3.5092274549756315 -10.170146983011964 0 0 0
1257 419 2 0.5897 -12.618966822951267 -5.398603363767732 -11.969483183382241 0 0 1
2530 844 1 -1.1794 -11.11422008009476 -3.1185002986884562 -10.044208950813372 0 0 0
2099 700 2 0.5897 -14.724829708454612 -7.51408483726389 -11.764955734397715 1 0 0
1255 419 1 -1.1794 -12.065030466187002 -5.778755549461318 -12.651297514548215 0 0 1
1256 419 2 0.5897 -11.528333202115899 -6.424707231408243 -12.192021821997848 0 0 1
1466 489 2 0.5897 -12.317899466091301 -4.6669673415199675 -13.97406724499695 0 0 1
1465 489 1 -1.1794 -12.513535263162671 -4.040261275671515 -14.670629243281587 0 0 1
222 74 2 0.5897 -5.3125733572922655 -8.582989101315793 -12.041049923905188 0 0 0
220 74 1 -1.1794 -5.682486452493993 -8.108867869899136 -12.785770003403593 0 0 0
1654 552 1 -1.1794 -7.573538767897536 -5.062311003467043 -10.910885798135453 0 0 0
1655 552 2 0.5897 -7.945435581773438 -4.183904506945844 -10.831325330360759 0 0 0
1656 552 2 0.5897 -7.631066078966251 -5.263579980120287 -11.844917933307295 0 0 0
1267 423 1 -1.1794 -4.7114009481049735 -5.571159837543112 -10.34470893519422 0 0 0
1269 423 2 0.5897 -5.6446834662194405 -5.50933028595399 -10.54816493778269 0 0 0
1268 423 2 0.5897 -4.2813281466044195 -5.6063004605370494 -11.199132960552792 0 0 0
1878 626 2 0.5897 -4.008802073418909 -3.9642792934332007 -9.895108823983836 0 0 0
221 74 2 0.5897 -5.446894401276261 -8.637790965062646 -13.547984827637514 0 0 0
1611 537 2 0.5897 -7.015067280996669 -6.791817757816366 -13.281755982318153 0 0 1
1876 626 1 -1.1794 -3.724742659250971 -3.111050186903981 -9.56717234619811 0 0 0
1889 630 2 0.5897 -3.738997532678198 -5.391274653382849 -13.322136585737724 0 0 0
1888 630 1 -1.1794 -3.1287320796190112 -5.5494772149900395 -12.60187119493489 0 0 0
1134 378 2 0.5897 -7.891160611311011 -5.9342469847619235 -9.360846296544361 0 0 0
1609 537 1 -1.1794 -7.481854730511831 -6.054849883240429 -13.675734936464556 0 0 1
1610 537 2 0.5897 -8.24746388410219 -6.4506820802614495 -14.092138407626566 0 0 1
2483 828 2 0.5897 -7.823768245016562 -4.511607353892591 -14.7022125929192 0 0 1
2484 828 2 0.5897 -7.558627279111231 -3.0215983981141132 -14.663887988408467 0 0 1
2150 717 2 0.5897 -4.039249692902828 -3.4303803681698835 -14.787503422327543 0 0 1
1023 341 2 0.5897 1.5274067054749594 -8.724463023348338 -13.549152217970484 0 0 0
1787 596 2 0.5897 0.8319238912441556 -7.24692985593481 -11.735961039271757 0 0 0
1786 596 1 -1.1794 0.54109944822053 -7.83317794904344 -12.434507331372963 0 0 0
1788 596 2 0.5897 -0.3289603979952229 -7.511709830718934 -12.670912872651003 0 0 0
1523 508 2 0.5897 0.7154555313058921 -5.657674698223362 -9.665956679088527 0 0 0
1524 508 2 0.5897 1.987117144263383 -5.57768839404522 -10.483502437357703 0 0 0
1522 508 1 -1.1794 1.0396784193284372 -5.686156936658222 -10.566126880609804 0 0 0
1829 610 2 0.5897 0.18900184579460166 -3.9586083886053984 -13.033913202243737 0 0 0
1830 610 2 0.5897 -0.06576460439523757 -4.487765684528792 -11.638570699060594 0 0 0
1890 630 2 0.5897 -2.5262177196207993 -4.806236195175053 -12.630188971628774 0 0 0
1828 610 1 -1.1794 -0.49188419329372834 -4.0333225015116465 -12.365299854825485 0 0 0
1846 616 1 -1.1794 1.5739502631107598 -4.148400811833675 -14.218450954505 0 0 0
1632 544 2 0.5897 -2.4040636499933825 -7.19188272973315 -12.964945245593869 0 0 1
1847 616 2 0.5897 2.4224370607168204 -4.534805370680099 -14.001667010770202 0 0 0
1630 544 1 -1.1794 -1.9764505472530551 -7.863704333261588 -13.496015029900557 0 0 1
1848 616 2 0.5897 1.7837846001320052 -3.4234891575452338 -14.80727112821199 0 0 0
1877 626 2 0.5897 -2.96876610971794 -3.3063209588064684 -9.013456523226338 0 0 0
1631 544 2 0.5897 -2.0759236940739374 -7.556612485585372 -14.397143023212182 0 0 1
1506 502 2 0.5897 5.121597953247171 -8.773034402170044 -13.903305018515244 0 0 1
1505 502 2 0.5897 3.648248650602941 -8.497934755394969 -14.116509791879167 0 0 1
2246 749 2 0.5897 3.31311647840932 -7.080388994645817 -10.589546221222726 0 0 0
424 142 1 -1.1794 6.232059305101675 -6.411822982030621 -11.97428113951171 0 0 0
426 142 2 0.5897 5.30770810560109 -6.448217239231884 -11.728347225083205 0 0 0
1692 564 2 0.5897 8.069582574856916 -8.4859437210646 -10.117298233929668 0 0 0
1690 564 1 -1.1794 8.466648360672739 -7.648357102501698 -9.878497065782465 0 0 0
425 142 2 0.5897 6.694860889952778 -6.785027439542626 -11.224104327064147 0 0 0
823 275 1 -1.1794 7.9195286063292265 -6.348546756657239 -14.343570840983055 0 0 0
824 275 2 0.5897 8.244705493972592 -7.19355004967699 -14.65415381134741 0 0 0
825 275 2 0.5897 7.473667602179766 -6.550607958938199 -13.521007346036928 0 0 0
1504 502 1 -1.1794 4.518309556202755 -8.139274776007502 -14.291407290476284 0 0 1
2245 749 1 -1.1794 3.8003188344199827 -6.258221603058905 -10.535630897695114 0 0 0
2247 749 2 0.5897 4.222159690384363 -6.285114393842143 -9.676817992828209 0 0 0
63 21 2 0.5897 5.234213694009988 -4.660696888870644 -13.660250202129774 0 0 1
62 21 2 0.5897 4.570269979731453 -5.982829210395531 -13.98124859713145 0 0 1
61 21 1 -1.1794 4.422805306230963 -5.0372597066318665 -14.000909874055058 0 0 1
2416 806 1 -1.1794 4.750787360014172 -3.4797661616217095 -10.502939634234934 0 0 0
2417 806 2 0.5897 4.408537095106869 -4.351149886954621 -10.70240939856691 0 0 0
2418 806 2 0.5897 4.716330615616805 -3.421174428302411 -9.548154377328988 0 0 0
1882 628 1 -1.1794 7.47487228182197 -3.3414460888381043 -10.334967754018585 0 0 0
1883 628 2 0.5897 7.4514253869894205 -3.6974314092636806 -9.446733950308671 0 0 0
1884 628 2 0.5897 6.607708430859244 -3.531816677909857 -10.692773634014783 0 0 0
1691 564 2 0.5897 8.264244064979291 -7.54319187301641 -8.948870444055235 0 0 0
72 24 2 0.5897 11.686681914849267 -7.579013983451611 -12.016855452448896 0 0 0
2237 746 2 0.5897 10.45109213958839 -6.80412162992798 -9.604227413792783 0 0 0
1711 571 1 -1.1794 10.312027949460752 -3.6028445687285373 -10.50498596107266 0 0 0
956 319 2 0.5897 9.704261102384873 -5.697281805723296 -14.168370990800433 0 0 0
2307 769 2 0.5897 13.31355243079177 -3.1399394801293177 -9.396303444017445 0 0 0
955 319 1 -1.1794 10.56624708827615 -5.2827941975468935 -14.130797022248917 0 0 0
2306 769 2 0.5897 12.042184388153185 -3.081200900612142 -10.216103186247514 0 0 0
957 319 2 0.5897 11.013312817274638 -5.7238032757067625 -13.40838764547386 0 0 0
2127 709 2 0.5897 10.397166317199545 -3.6077753058310726 -13.5197355764756 0 0 0
70 24 1 -1.1794 11.867406814910133 -6.656017732219889 -12.194756309553183 0 0 0
2098 700 1 -1.1794 14.350350031452326 -7.221143257367333 -11.09577566127337 0 0 0
2100 700 2 0.5897 13.584200203966564 -6.927976856013792 -11.589031115571645 0 0 0
71 24 2 0.5897 11.68541322564522 -6.211880933228455 -11.36659407993648 0 0 0
1712 571 2 0.5897 10.501852644574072 -4.47339892017661 -10.155223671039712 0 0 0
2236 746 1 -1.1794 11.115252669967195 -6.116890988144618 -9.550960061506395 0 0 0
1713 571 2 0.5897 9.361800228229292 -3.515784780876464 -10.429358323280145 0 0 0
2531 844 2 0.5897 -10.995884020798936 -2.547745938995103 -10.803463660714188 0 0 0
733 245 1 -1.1794 -10.482460753934213 -0.8704825492706121 -11.689721263420395 0 0 0
1780 594 1 -1.1794 -13.426924185810538 0.4370522424374794 -10.997963622411685 0 0 0
1781 594 2 0.5897 -12.895371847370834 1.2213633573653375 -10.86179970044237 0 0 0
1782 594 2 0.5897 -12.82422641759672 -0.2907761334724359 -10.845472600718317 0 0 0
466 156 1 -1.1794 -14.14517180482295 -0.25056278093901874 -13.46381145099219 1 0 1
467 156 2 0.5897 -13.883804193617356 0.23755960399867782 -12.683006588942844 1 0 1
735 245 2 0.5897 -10.749921810693996 -0.9139104656699821 -12.607770290428727 0 0 0
468 156 2 0.5897 -14.258886032299941 -1.150269248544701 -13.15749454731094 1 0 1
2395 799 1 -1.1794 -11.52254388115161 -1.103240193575461 -14.376201894826393 0 0 0
2396 799 2 0.5897 -11.520170725367166 -2.0597975755341853 -14.411224175801578 0 0 0
923 308 2 0.5897 -12.100020700227487 2.371809751269449 -13.247125378431958 0 0 0
922 308 1 -1.1794 -11.573028568139136 2.5957768449646075 -12.480084752903817 0 0 0
734 245 2 0.5897 -9.615322647894995 -0.46571223741980106 -11.711277825732557 0 0 0
805 269 1 -1.1794 -9.062718729833772 1.4904308238768422 -13.139789071627261 0 0 0
952 318 1 -1.1794 -10.604873504176517 2.941146226320324 -9.829641523846501 0 0 0
807 269 2 0.5897 -10.011907728909025 1.5694993104871422 -13.044791179484838 0 0 0
2397 799 2 0.5897 -12.448807890056145 -0.8672517922173633 -14.325414316613598 0 0 0
502 168 1 -1.1794 -13.045842680706912 2.3185028936119743 -14.64947366979829 1 0 0
2147 716 2 0.5897 -8.896110617583819 -2.513297753530212 -10.35114951707774 0 0 0
2146 716 1 -1.1794 -7.9430580565336175 -2.428246876839623 -10.324907408479621 0 0 0
2148 716 2 0.5897 -7.77260149682473 -1.5403870230982637 -10.639361835896477 0 0 0
2372 791 2 0.5897 -7.7874076584334615 0.3716081909733333 -12.2834675878828 0 0 0
1415 472 2 0.5897 -3.0637629596457323 2.3045893250749003 -9.916833760302806 0 0 0
1774 592 1 -1.1794 -6.187883163719528 -1.672221209631413 -13.685211212937675 0 0 0
1775 592 2 0.5897 -5.231155015122821 -1.680330016288929 -13.65627872705094 0 0 0
1776 592 2 0.5897 -6.400430217201276 -1.1292386665710623 -14.44430678594887 0 0 0
2371 791 1 -1.1794 -7.387542972309517 -0.27660520628732854 -11.70367497220703 0 0 0
2373 791 2 0.5897 -6.799576969923557 -0.7755290473633476 -12.270775994752576 0 0 0
1250 417 2 0.5897 -6.282193505793213 0.7240594793650885 -10.538837175660191 0 0 0
1251 417 2 0.5897 -5.0730122941692795 1.2947813403799913 -9.828865516331815 0 0 0
1249 417 1 -1.1794 -6.029823713637899 1.2832561247489132 -9.804097873385146 0 0 0
2140 714 1 -1.1794 -3.445270891142618 -1.6628971189228476 -14.191116229345777 0 0 0
1414 472 1 -1.1794 -3.4935767999838525 2.080659394510178 -9.091393897849155 0 0 0
2273 758 2 0.5897 -3.4333075004666966 -0.018592227889024926 -14.156644646045839 0 0 0
2141 714 2 0.5897 -3.0645211286580576 -1.862822021938154 -13.335960251516749 0 0 0
2272 758 1 -1.1794 -3.4450028298138715 0.9325134120768812 -14.049437129929146 0 0 0
2274 758 2 0.5897 -3.233092939125841 1.0726188169605226 -13.126563169077809 0 0 0
1988 663 2 0.5897 -4.653546768972955 2.044740477525025 -14.763635463162448 0 0 1
806 269 2 0.5897 -8.71112455603096 2.252042050810445 -12.678740354510492 0 0 0
2184 728 2 0.5897 -6.963274398105961 2.770617395366944 -10.678757640551199 0 0 0
341 114 2 0.5897 -1.411749067408886 -2.529729034590071 -11.845463537550753 0 0 0
541 181 1 -1.1794 -2.5487619021003507 1.958210197818154 -11.597483751288086 0 0 0
542 181 2 0.5897 -1.8024146787388045 1.3938596326110932 -11.395725901703054 0 0 0
340 114 1 -1.1794 -2.107532334666592 -1.8875124404745414 -11.705193968033113 0 0 0
342 114 2 0.5897 -2.6617467516239266 -2.277866163942294 -11.029396598106118 0 0 0
346 116 1 -1.1794 1.4714756362136363 0.6580622692943621 -13.494331571883773 0 0 0
347 116 2 0.5897 0.7006881724205289 0.8305701815189295 -14.035035909540944 0 0 0
348 116 2 0.5897 1.7440460065160366 1.5210942730434915 -13.182700695304508 0 0 0
1501 501 1 -1.1794 -0.34069353642627753 0.25885270442581465 -11.266310478341792 0 0 0
1502 501 2 0.5897 0.1877868958687774 0.2029582781916055 -12.062437943693498 0 0 0
1503 501 2 0.5897 -0.872239354133038 -0.537152160948839 -11.274731159038836 0 0 0
1923 641 2 0.5897 0.6876836848539192 0.32594718317096216 -9.804837090322152 0 0 0
543 181 2 0.5897 -2.156639145657291 2.796718978494681 -11.841152490627291 0 0 0
1921 641 1 -1.1794 1.2374381470669498 0.3260824253426051 -9.021254335181823 0 0 0
1922 641 2 0.5897 2.0487639936364133 -0.1003147835642082 -9.297239213200246 0 0 0
2142 714 2 0.5897 -2.7490967298958964 -1.8636429769287517 -14.81663644862805 0 0 0
3 1 2 0.5897 3.9671281272309287 -1.3327727282024675 -10.451924941154486 0 0 0
1 1 1 -1.1794 3.7114175320935487 -0.665820066844045 -9.814729042897255 0 0 0
1100 367 2 0.5897 6.753604668355557 -2.3263355024921886 -14.642927991681315 0 0 1
18 6 2 0.5897 3.1854559449576065 0.07470146517576737 -14.332580787715733 0 0 0
17 6 2 0.5897 3.955120265105979 -1.1077765011725162 -13.783712044751582 0 0 0
817 273 1 -1.1794 7.1272015311785815 -0.898780830154335 -11.2158597908425 0 0 0
818 273 2 0.5897 7.496425014353342 -1.0282264212109116 -12.089444929395846 0 0 0
819 273 2 0.5897 7.208591192990504 -1.7531088912500632 -10.79191195678024 0 0 0
2366 789 2 0.5897 6.081430235362745 0.6496786858203851 -11.803600824187074 0 0 0
2367 789 2 0.5897 4.600870353979122 0.8378198365503859 -11.5497499672136 0 0 0
2355 785 2 0.5897 7.3870799436636965 1.968338889521874 -14.203016728698257 0 0 0
2353 785 1 -1.1794 8.27874396954175 1.6478807392751875 -14.067074709062583 0 0 0
1566 522 2 0.5897 8.35449388421759 -0.27844941996612604 -13.855418557310331 0 0 0
2365 789 1 -1.1794 5.373207805971802 1.287429959134215 -11.892646567154351 0 0 0
1564 522 1 -1.1794 8.084023280310717 -1.183480630908191 -13.700499366947 0 0 0
1565 522 2 0.5897 8.90270444935948 -1.679197226113752 -13.684329310555576 0 0 0
963 321 2 0.5897 8.435999914074802 -0.11494578673721101 -10.341057477198504 0 0 0
1125 375 2 0.5897 5.831656874302233 2.1624029883521914 -9.95238329792976 0 0 0
1124 375 2 0.5897 7.191720514830752 2.3435534890659646 -9.31261319749899 0 0 0
2354 785 2 0.5897 8.704946842088777 2.3345288873062593 -13.554142461290867 0 0 0
654 218 2 0.5897 5.47023886002226 2.0630004509547 -13.927795541713884 0 0 0
16 6 1 -1.1794 3.861376023449562 -0.562128926126519 -14.56455277606402 0 0 0
1423 475 1 -1.1794 8.714656454590646 2.8518963835176123 -9.86291414245342 0 0 0
1123 375 1 -1.1794 6.2942559978833685 2.0726572422269776 -9.119208969707847 0 0 0
2 1 2 0.5897 4.309978204077918 -0.7948261100244824 -9.078985318221449 0 0 0
652 218 1 -1.1794 5.734672521184965 2.306718959469123 -14.814874723359528 0 0 0
298 100 1 -1.1794 14.670903944481157 -2.656206536905092 -12.351487525147268 0 0 0
299 100 2 0.5897 13.921564626936117 -2.5209811406163105 -11.771454303598865 0 0 0
300 100 2 0.5897 14.293825562107255 -2.6712820342855466 -13.231157739339473 0 0 0
2125 709 1 -1.1794 10.609646323278376 -2.685757185702501 -13.374936549940518 0 0 0
2126 709 2 0.5897 10.656045639935837 -2.596801944858445 -12.423009270895406 0 0 0
961 321 1 -1.1794 9.198390215395012 0.14418977012985223 -9.82352309399819 0 0 0
2305 769 1 -1.1794 12.904221672324496 -2.6749804689224366 -10.12602474308947 0 0 0
962 321 2 0.5897 9.092839052810568 1.0869999002307633 -9.696244901781377 0 0 0
2495 832 2 0.5897 14.643828254058825 0.9794359911588959 -10.0790898444491 -1 0 0
2494 832 1 -1.1794 13.843874690709654 1.4038359676440244 -9.768943579927075 -1 0 0
2496 832 2 0.5897 13.137655677794399 0.9501769606477914 -10.229030558385949 -1 0 0
161 54 2 0.5897 13.741066672485907 0.4569346348736776 -13.556563181198715 0 0 0
160 54 1 -1.1794 12.869852060610146 0.8449491807174372 -13.474944655105622 0 0 0
162 54 2 0.5897 12.550745243036864 0.5416921978307521 -12.62498103686217 0 0 0
92 31 2 0.5897 11.12921528098941 0.14701296876869208 -10.752010242848101 0 0 0
91 31 1 -1.1794 11.976712157230036 -0.09832496348195896 -11.123216297126536 0 0 0
93 31 2 0.5897 12.259561021366185 -0.8485943551743755 -10.600407288207444 0 0 0
569 190 2 0.5897 12.489431065129555 2.620865737772732 -13.170936972645453 0 0 0
924 308 2 0.5897 -11.85745740787719 3.4784335084523264 -12.2429137163654 0 0 0
953 318 2 0.5897 -10.656246500914754 3.137746923477014 -10.765024335259465 0 0 0
954 318 2 0.5897 -11.391618302327881 3.33930456847931 -9.457162002532433 0 0 0
2029 677 1 -1.1794 -9.325052254955459 5.215688982241858 -10.681212370271883 0 0 0
2031 677 2 0.5897 -9.839876103905404 4.621552364355679 -10.135144596604661 0 0 0
372 124 2 0.5897 -10.474318250678389 6.623246439207552 -11.141197146845327 0 0 0
371 124 2 0.5897 -11.886082294364325 6.507016463896662 -11.675338476240846 0 0 0
370 124 1 -1.1794 -11.214480325274407 7.148875483808304 -11.44468732934545 0 0 0
465 155 2 0.5897 -11.607016939066646 8.038968326309337 -12.996156398209914 0 0 0
1417 473 1 -1.1794 -12.95088436622789 4.988871748537086 -11.970494973898111 0 0 0
1418 473 2 0.5897 -13.686574296751164 4.578492941566157 -11.515975360413893 0 0 0
1419 473 2 0.5897 -13.232221686810593 5.041321174218993 -12.883913076615986 0 0 0
1244 415 2 0.5897 -12.756922199699225 7.852707551593994 -8.94887336702488 0 0 0
1361 454 2 0.5897 -14.792048803802388 8.3547465560871 -13.081834918041054 1 0 0
1245 415 2 0.5897 -11.63243636344057 8.157176552348169 -9.915684823455095 0 0 0
1243 415 1 -1.1794 -12.072014143551128 8.49486795863223 -9.13532096441536 0 0 0
503 168 2 0.5897 -13.479263212706195 3.169778202419568 -14.710407041039964 1 0 0
463 155 1 -1.1794 -11.837057868700061 8.321681268441154 -13.881250432141805 0 0 0
791 264 2 0.5897 -8.17810020380441 6.6369945068532346 -10.295842887639663 0 0 0
2030 677 2 0.5897 -8.517464626874837 4.735189749045105 -10.86329893155457 0 0 0
405 135 2 0.5897 -5.116697867547687 5.265277455501781 -9.738224796945246 0 0 0
1552 518 1 -1.1794 -5.568020168410984 4.550429839476813 -12.938289972698724 0 0 0
1553 518 2 0.5897 -5.162018713349401 5.011285783937808 -12.204119551989795 0 0 0
1554 518 2 0.5897 -6.03798911066708 5.231808404256917 -13.419002224759035 0 0 0
403 135 1 -1.1794 -5.0122059161391626 5.870602846107175 -10.472319430774302 0 0 0
404 135 2 0.5897 -5.840125108894085 6.349669583568062 -10.50805659445278 0 0 0
2183 728 2 0.5897 -6.7719517701443 3.6070637989793646 -11.926015915373751 0 0 0
2182 728 1 -1.1794 -7.43533280555743 3.333270112647721 -11.292612860342807 0 0 0
790 264 1 -1.1794 -7.371429437658157 7.0932742329130996 -10.056421080160852 0 0 0
1989 663 2 0.5897 -5.199250021291325 3.4050315747909856 -14.384543751880456 0 0 1
1224 408 2 0.5897 -7.149230766327706 7.30688060072718 -14.184413698137242 0 0 1
792 264 2 0.5897 -7.419098867175001 7.181498800673904 -9.104487781420628 0 0 0
1647 549 2 0.5897 -4.1235179294956055 7.730849337834329 -14.088353559651226 0 0 0
1222 408 1 -1.1794 -7.2283374917516525 6.355098430916307 -14.248342997679849 0 0 1
2198 733 2 0.5897 -3.37186513358216 6.492274249899303 -10.989075449577374 0 0 0
1645 549 1 -1.1794 -3.1918286521239043 7.937823146415447 -14.161488333490546 0 0 0
1383 461 2 0.5897 -7.84034583924285 8.460087474878161 -11.130489924144232 0 0 1
1223 408 2 0.5897 -8.143577276541194 6.205747938693143 -14.485549676665517 0 0 1
610 204 1 -1.1794 1.76192033598522 3.348969644681368 -12.826681938526384 0 0 0
612 204 2 0.5897 2.4980011110868467 3.642410360678202 -12.28973480092515 0 0 0
1646 549 2 0.5897 -2.7741193309712653 7.407050178827959 -13.483231876703426 0 0 0
2197 733 1 -1.1794 -2.588572048896742 6.768512448720617 -11.464871105717178 0 0 0
2199 733 2 0.5897 -2.044860054737283 7.196994707536177 -10.803802254906234 0 0 0
318 106 2 0.5897 -0.5289600171337057 6.478345255208616 -14.536955874043516 0 0 0
497 166 2 0.5897 1.8228744586322954 7.177265698843218 -10.145741163333291 0 0 0
1450 484 1 -1.1794 1.046862421985077 7.382723488509303 -13.487538568956444 0 0 0
1894 632 1 -1.1794 -0.9833597278123332 4.329790212896526 -12.444585127991623 0 0 0
1895 632 2 0.5897 -1.0763611588598962 4.660529826800932 -13.33800425043664 0 0 0
1896 632 2 0.5897 -1.5599387669853275 4.886567552047907 -11.921334062356046 0 0 0
496 166 1 -1.1794 2.2384191600416443 6.754655477656325 -10.897376692227596 0 0 0
1452 484 2 0.5897 1.5388529469726784 7.326838835482441 -12.66835824201451 0 0 0
1451 484 2 0.5897 1.7130221138321282 7.321826611411499 -14.172198637970506 0 0 0
498 166 2 0.5897 2.9215976995143897 7.367283819706088 -11.169754198501566 0 0 0
611 204 2 0.5897 0.9899641193313897 3.719116713552843 -12.398538065664669 0 0 0
827 276 2 0.5897 0.08332496689838464 8.839942729466951 -13.401156112386138 0 0 0
1003 335 1 -1.1794 -0.9482729039190794 8.870576054359233 -10.287195481082867 0 0 0
1773 591 2 0.5897 -0.01956635718185673 7.78888376772613 -9.238659614523844 0 0 0
1425 475 2 0.5897 8.89203162666428 3.273338308595676 -10.703840016258654 0 0 0
2178 726 2 0.5897 3.5359016904255363 3.878979060923612 -10.144891844683618 0 0 0
2177 726 2 0.5897 3.2300055393959433 5.18570300809764 -10.845465114469842 0 0 0
2176 726 1 -1.1794 3.6881238629121924 4.3533937395937485 -10.96220033616207 0 0 0
319 107 1 -1.1794 6.244566492549499 8.464141194663284 -9.800230568582531 0 0 0
1384 462 1 -1.1794 6.142853080114502 7.498949179430159 -14.003702863419294 0 0 0